calculator: qe
length_unit: au
nqpoint: 183    
npath: 3      
segment_nqpoint:
- 61
- 61
- 61
reciprocal_lattice:
- [   0.16746114,  -0.09670636,   0.00000000 ] # a*
- [   0.00000000,   0.19341272,   0.00000000 ] # b*
- [   0.00000000,   0.00000000,   0.02645886 ] # c*
natom: 3      
lattice:
- [     5.971534593077021,     0.000000000000000,     0.000000000000000 ] # a
- [     2.985767296538511,     5.170290710967953,     0.000000000000000 ] # b
- [     0.000000000000000,     0.000000000000000,    37.794522740993806 ] # c
points:
- symbol: Mo # 1
  coordinates: [  0.000000000000000,  0.000000000000000,  0.500000000000000 ]
  mass: 95.960000
- symbol: S  # 2
  coordinates: [  0.333333000000000,  0.666667000000000,  0.430000000000000 ]
  mass: 32.065000
- symbol: S  # 3
  coordinates: [  0.666667000000000,  0.333333000000000,  0.570000000000000 ]
  mass: 32.065000

phonon:
- q-position: [    0.0000000,    0.0000000,    0.0000000 ]
  distance:    0.0000000
  band:
  - # 1
    frequency:  -18.8580837576
  - # 2
    frequency:  -10.0316966992
  - # 3
    frequency:   -4.6280423648
  - # 4
    frequency:   -4.3685010905
  - # 5
    frequency:   -0.0047297326
  - # 6
    frequency:    0.0030042615
  - # 7
    frequency:    0.0099024355
  - # 8
    frequency:   26.3275910917
  - # 9
    frequency:   35.6425787109

- q-position: [    0.0083333,    0.0000000,    0.0000000 ]
  distance:    0.0016115
  band:
  - # 1
    frequency:  -18.8547911955
  - # 2
    frequency:  -10.0329596106
  - # 3
    frequency:   -4.6423372641
  - # 4
    frequency:   -4.3609796688
  - # 5
    frequency:    0.0769079016
  - # 6
    frequency:    0.1294904821
  - # 7
    frequency:    0.2479477124
  - # 8
    frequency:   26.3256023148
  - # 9
    frequency:   35.6406938886

- q-position: [    0.0166667,    0.0000000,    0.0000000 ]
  distance:    0.0032230
  band:
  - # 1
    frequency:  -18.8449165411
  - # 2
    frequency:  -10.0367432527
  - # 3
    frequency:   -4.6808166448
  - # 4
    frequency:   -4.3427635070
  - # 5
    frequency:    0.1538764936
  - # 6
    frequency:    0.2591468915
  - # 7
    frequency:    0.4950509741
  - # 8
    frequency:   26.3196390524
  - # 9
    frequency:   35.6350442229

- q-position: [    0.0250000,    0.0000000,    0.0000000 ]
  distance:    0.0048345
  band:
  - # 1
    frequency:  -18.8284688917
  - # 2
    frequency:  -10.0430324094
  - # 3
    frequency:   -4.7358965965
  - # 4
    frequency:   -4.3212641720
  - # 5
    frequency:    0.2316176727
  - # 6
    frequency:    0.3892181046
  - # 7
    frequency:    0.7407922269
  - # 8
    frequency:   26.3097105120
  - # 9
    frequency:   35.6256441103

- q-position: [    0.0333333,    0.0000000,    0.0000000 ]
  distance:    0.0064460
  band:
  - # 1
    frequency:  -18.8054634152
  - # 2
    frequency:  -10.0518019200
  - # 3
    frequency:   -4.8023472507
  - # 4
    frequency:   -4.3014235550
  - # 5
    frequency:    0.3103830663
  - # 6
    frequency:    0.5198850501
  - # 7
    frequency:    0.9844848262
  - # 8
    frequency:   26.2958320496
  - # 9
    frequency:   35.6125175198

- q-position: [    0.0416667,    0.0000000,    0.0000000 ]
  distance:    0.0080574
  band:
  - # 1
    frequency:  -18.7759213591
  - # 2
    frequency:  -10.0630169721
  - # 3
    frequency:   -4.8772970450
  - # 4
    frequency:   -4.2857129327
  - # 5
    frequency:    0.3904068857
  - # 6
    frequency:    0.6513167315
  - # 7
    frequency:    1.2255073251
  - # 8
    frequency:   26.2780251857
  - # 9
    frequency:   35.5956979548

- q-position: [    0.0500000,    0.0000000,    0.0000000 ]
  distance:    0.0096689
  band:
  - # 1
    frequency:  -18.7398700629
  - # 2
    frequency:  -10.0766334999
  - # 3
    frequency:   -4.9591574932
  - # 4
    frequency:   -4.2752184035
  - # 5
    frequency:    0.4718595363
  - # 6
    frequency:    0.7836613498
  - # 7
    frequency:    1.4633072444
  - # 8
    frequency:   26.2563176268
  - # 9
    frequency:   35.5752283998

- q-position: [    0.0583333,    0.0000000,    0.0000000 ]
  distance:    0.0112804
  band:
  - # 1
    frequency:  -18.6973429748
  - # 2
    frequency:  -10.0925986776
  - # 3
    frequency:   -5.0469773254
  - # 4
    frequency:   -4.2703042597
  - # 5
    frequency:    0.5548342971
  - # 6
    frequency:    0.9170419196
  - # 7
    frequency:    1.6974149722
  - # 8
    frequency:   26.2307432947
  - # 9
    frequency:   35.5511612503

- q-position: [    0.0666667,    0.0000000,    0.0000000 ]
  distance:    0.0128919
  band:
  - # 1
    frequency:  -18.6483796731
  - # 2
    frequency:  -10.1108514930
  - # 3
    frequency:   -5.1401290909
  - # 4
    frequency:   -4.2709487697
  - # 5
    frequency:    0.6393425885
  - # 6
    frequency:    1.0515527418
  - # 7
    frequency:    1.9274523949
  - # 8
    frequency:   26.2013423625
  - # 9
    frequency:   35.5235582271

- q-position: [    0.0750000,    0.0000000,    0.0000000 ]
  distance:    0.0145034
  band:
  - # 1
    frequency:  -18.5930258919
  - # 2
    frequency:  -10.1313233870
  - # 3
    frequency:   -5.2381539952
  - # 4
    frequency:   -4.2769226724
  - # 5
    frequency:    0.7253150758
  - # 6
    frequency:    1.1872560895
  - # 7
    frequency:    2.1531335845
  - # 8
    frequency:   26.1681612983
  - # 9
    frequency:   35.4924902729

- q-position: [    0.0833333,    0.0000000,    0.0000000 ]
  distance:    0.0161149
  band:
  - # 1
    frequency:  -18.5313335530
  - # 2
    frequency:  -10.1539389429
  - # 3
    frequency:   -5.3406792800
  - # 4
    frequency:   -4.2878924344
  - # 5
    frequency:    0.8126076946
  - # 6
    frequency:    1.3241788853
  - # 7
    frequency:    2.3742582266
  - # 8
    frequency:   26.1312529170
  - # 9
    frequency:   35.4580374312

- q-position: [    0.0916667,    0.0000000,    0.0000000 ]
  distance:    0.0177264
  band:
  - # 1
    frequency:  -18.4633608037
  - # 2
    frequency:  -10.1786166073
  - # 3
    frequency:   -5.4473713699
  - # 4
    frequency:   -4.3034828320
  - # 5
    frequency:    0.9010117171
  - # 6
    frequency:    1.4623094089
  - # 7
    frequency:    2.5907000958
  - # 8
    frequency:   26.0906764411
  - # 9
    frequency:   35.4202887066

- q-position: [    0.1000000,    0.0000000,    0.0000000 ]
  distance:    0.0193379
  band:
  - # 1
    frequency:  -18.3891720616
  - # 2
    frequency:  -10.2052694261
  - # 3
    frequency:   -5.5579086829
  - # 4
    frequency:   -4.3233144226
  - # 5
    frequency:    0.9902667679
  - # 6
    frequency:    1.6015943078
  - # 7
    frequency:    2.8023932489
  - # 8
    frequency:   26.0464975697
  - # 9
    frequency:   35.3793419056

- q-position: [    0.1083333,    0.0000000,    0.0000000 ]
  distance:    0.0209494
  band:
  - # 1
    frequency:  -18.3088380678
  - # 2
    frequency:  -10.2338057791
  - # 3
    frequency:   -5.6719663952
  - # 4
    frequency:   -4.3470243445
  - # 5
    frequency:    1.0800755237
  - # 6
    frequency:    1.7419363472
  - # 7
    frequency:    3.0093181587
  - # 8
    frequency:   25.9987885586
  - # 9
    frequency:   35.3353034570

- q-position: [    0.1166667,    0.0000000,    0.0000000 ]
  distance:    0.0225609
  band:
  - # 1
    frequency:  -18.2224359492
  - # 2
    frequency:  -10.2641300965
  - # 3
    frequency:   -5.7892089473
  - # 4
    frequency:   -4.3742760374
  - # 5
    frequency:    1.1701187822
  - # 6
    frequency:    1.8831933795
  - # 7
    frequency:    3.2114892424
  - # 8
    frequency:   25.9476283089
  - # 9
    frequency:   35.2882882115

- q-position: [    0.1250000,    0.0000000,    0.0000000 ]
  distance:    0.0241723
  band:
  - # 1
    frequency:  -18.1300492916
  - # 2
    frequency:  -10.2961435436
  - # 3
    frequency:   -5.9092876407
  - # 4
    frequency:   -4.4047620277
  - # 5
    frequency:    1.2600696913
  - # 6
    frequency:    2.0251789250
  - # 7
    frequency:    3.4089444956
  - # 8
    frequency:   25.8931024681
  - # 9
    frequency:   35.2384192180

- q-position: [    0.1333333,    0.0000000,    0.0000000 ]
  distance:    0.0257838
  band:
  - # 1
    frequency:  -18.0317682254
  - # 2
    frequency:  -10.3297446598
  - # 3
    frequency:   -6.0318414803
  - # 4
    frequency:   -4.4382028836
  - # 5
    frequency:    1.3496061778
  - # 6
    frequency:    2.1676645639
  - # 7
    frequency:    3.6017373907
  - # 8
    frequency:   25.8353035405
  - # 9
    frequency:   35.1858274785

- q-position: [    0.1416667,    0.0000000,    0.0000000 ]
  distance:    0.0273953
  band:
  - # 1
    frequency:  -17.9276895257
  - # 2
    frequency:  -10.3648299394
  - # 3
    frequency:   -6.1564999327
  - # 4
    frequency:   -4.4743445527
  - # 5
    frequency:    1.4384209521
  - # 6
    frequency:    2.3103840931
  - # 7
    frequency:    3.7899308675
  - # 8
    frequency:   25.7743310097
  - # 9
    frequency:   35.1306516769

- q-position: [    0.1500000,    0.0000000,    0.0000000 ]
  distance:    0.0290068
  band:
  - # 1
    frequency:  -17.8179167293
  - # 2
    frequency:  -10.4012943462
  - # 3
    frequency:   -6.2828866413
  - # 4
    frequency:   -4.5129555201
  - # 5
    frequency:    1.5262288293
  - # 6
    frequency:    2.4530391766
  - # 7
    frequency:    3.9735930772
  - # 8
    frequency:   25.7102914726
  - # 9
    frequency:   35.0730378848

- q-position: [    0.1583333,    0.0000000,    0.0000000 ]
  distance:    0.0306183
  band:
  - # 1
    frequency:  -17.7025602716
  - # 2
    frequency:  -10.4390317499
  - # 3
    frequency:   -6.4106234428
  - # 4
    frequency:   -4.5538245977
  - # 5
    frequency:    1.6127714312
  - # 6
    frequency:    2.5953060586
  - # 7
    frequency:    4.1527944989
  - # 8
    frequency:   25.6432987831
  - # 9
    frequency:   35.0131392408

- q-position: [    0.1666667,    0.0000000,    0.0000000 ]
  distance:    0.0322298
  band:
  - # 1
    frequency:  -17.5817376472
  - # 2
    frequency:  -10.4779352790
  - # 3
    frequency:   -6.5393342602
  - # 4
    frequency:   -4.5967596817
  - # 5
    frequency:    1.6978195713
  - # 6
    frequency:    2.7368428387
  - # 7
    frequency:    4.3276060654
  - # 8
    frequency:   25.5734742081
  - # 9
    frequency:   34.9511156037

- q-position: [    0.1750000,    0.0000000,    0.0000000 ]
  distance:    0.0338413
  band:
  - # 1
    frequency:  -17.4555735969
  - # 2
    frequency:  -10.5178975830
  - # 3
    frequency:   -6.6686486314
  - # 4
    frequency:   -4.6415874991
  - # 5
    frequency:    1.7811737663
  - # 6
    frequency:    2.8772968333
  - # 7
    frequency:    4.4980979852
  - # 8
    frequency:   25.5009465919
  - # 9
    frequency:   34.8871331794

- q-position: [    0.1833333,    0.0000000,    0.0000000 ]
  distance:    0.0354528
  band:
  - # 1
    frequency:  -17.3242003291
  - # 2
    frequency:  -10.5588109978
  - # 3
    frequency:   -6.7982047599
  - # 4
    frequency:   -4.6881541801
  - # 5
    frequency:    1.8626633601
  - # 6
    frequency:    3.0163116318
  - # 7
    frequency:    4.6643390078
  - # 8
    frequency:   25.4258525297
  - # 9
    frequency:   34.8213641210

- q-position: [    0.1916667,    0.0000000,    0.0000000 ]
  distance:    0.0370643
  band:
  - # 1
    frequency:  -17.1877577780
  - # 2
    frequency:  -10.6005676090
  - # 3
    frequency:   -6.9276520638
  - # 4
    frequency:   -4.7363264061
  - # 5
    frequency:    1.9421447200
  - # 6
    frequency:    3.1535335739
  - # 7
    frequency:    4.8263959337
  - # 8
    frequency:   25.3483365479
  - # 9
    frequency:   34.7539861015

- q-position: [    0.2000000,    0.0000000,    0.0000000 ]
  distance:    0.0386758
  band:
  - # 1
    frequency:  -17.0463939106
  - # 2
    frequency:  -10.6430592093
  - # 3
    frequency:   -7.0566532519
  - # 4
    frequency:   -4.7859928681
  - # 5
    frequency:    2.0194989007
  - # 6
    frequency:    3.2886174964
  - # 7
    frequency:    4.9843332244
  - # 8
    frequency:   25.2685512888
  - # 9
    frequency:   34.6851818603

- q-position: [    0.2083333,    0.0000000,    0.0000000 ]
  distance:    0.0402872
  band:
  - # 1
    frequency:  -16.9002650877
  - # 2
    frequency:  -10.6861771433
  - # 3
    frequency:   -7.1848859884
  - # 4
    frequency:   -4.8370657882
  - # 5
    frequency:    2.0946290785
  - # 6
    frequency:    3.4212316975
  - # 7
    frequency:    5.1382126101
  - # 8
    frequency:   25.1866576969
  - # 9
    frequency:   34.6151387238

- q-position: [    0.2166667,    0.0000000,    0.0000000 ]
  distance:    0.0418987
  band:
  - # 1
    frequency:  -16.7495364941
  - # 2
    frequency:  -10.7298120354
  - # 3
    frequency:   -7.3120442198
  - # 4
    frequency:   -4.8894822968
  - # 5
    frequency:    2.1674579788
  - # 6
    frequency:    3.5510621402
  - # 7
    frequency:    5.2880926282
  - # 8
    frequency:   25.1028252037
  - # 9
    frequency:   34.5440481001

- q-position: [    0.2250000,    0.0000000,    0.0000000 ]
  distance:    0.0435102
  band:
  - # 1
    frequency:  -16.5943826514
  - # 2
    frequency:  -10.7738533939
  - # 3
    frequency:   -7.4378392400
  - # 4
    frequency:   -4.9432054985
  - # 5
    frequency:    2.2379254393
  - # 6
    frequency:    3.6778159570
  - # 7
    frequency:    5.4340280586
  - # 8
    frequency:   25.0172319057
  - # 9
    frequency:   34.4721049498

- q-position: [    0.2333333,    0.0000000,    0.0000000 ]
  distance:    0.0451217
  band:
  - # 1
    frequency:  -16.4349880323
  - # 2
    frequency:  -10.8181890828
  - # 3
    frequency:   -7.5620005655
  - # 4
    frequency:   -4.9982250949
  - # 5
    frequency:    2.3059861935
  - # 6
    frequency:    3.8012243318
  - # 7
    frequency:    5.5760692449
  - # 8
    frequency:   24.9300647313
  - # 9
    frequency:   34.3995072340

- q-position: [    0.2416667,    0.0000000,    0.0000000 ]
  distance:    0.0467332
  band:
  - # 1
    frequency:  -16.2715478018
  - # 2
    frequency:  -10.8627046500
  - # 3
    frequency:   -7.6842766850
  - # 4
    frequency:   -5.0545574597
  - # 5
    frequency:    2.3716079136
  - # 6
    frequency:    3.9210448322
  - # 7
    frequency:    5.7142613142
  - # 8
    frequency:   24.8415195894
  - # 9
    frequency:   34.3264553420

- q-position: [    0.2500000,    0.0000000,    0.0000000 ]
  distance:    0.0483447
  band:
  - # 1
    frequency:  -16.1042687153
  - # 2
    frequency:  -10.9072824981
  - # 3
    frequency:   -7.8044357385
  - # 4
    frequency:   -5.1122450796
  - # 5
    frequency:    2.4347695207
  - # 6
    frequency:    4.0370632421
  - # 7
    frequency:    5.8486433233
  - # 8
    frequency:   24.7518014941
  - # 9
    frequency:   34.2531514994

- q-position: [    0.2583333,    0.0000000,    0.0000000 ]
  distance:    0.0499562
  band:
  - # 1
    frequency:  -15.9333702163
  - # 2
    frequency:  -10.9518008734
  - # 3
    frequency:   -7.9222661725
  - # 4
    frequency:   -5.1713552847
  - # 5
    frequency:    2.4954597495
  - # 6
    frequency:    4.1490949290
  - # 7
    frequency:    5.9792473730
  - # 8
    frequency:   24.6611246556
  - # 9
    frequency:   34.1797991610

- q-position: [    0.2666667,    0.0000000,    0.0000000 ]
  distance:    0.0515677
  band:
  - # 1
    frequency:  -15.7590857882
  - # 2
    frequency:  -10.9961326442
  - # 3
    frequency:   -8.0375774098
  - # 4
    frequency:   -5.2319782007
  - # 5
    frequency:    2.5536759423
  - # 6
    frequency:    4.2569857488
  - # 7
    frequency:    6.1060977392
  - # 8
    frequency:   24.5697125292
  - # 9
    frequency:   34.1066023899

- q-position: [    0.2750000,    0.0000000,    0.0000000 ]
  distance:    0.0531792
  band:
  - # 1
    frequency:  -15.5816646333
  - # 2
    frequency:  -11.0401438190
  - # 3
    frequency:   -8.1502005676
  - # 4
    frequency:   -5.2942238541
  - # 5
    frequency:    2.6094230392
  - # 6
    frequency:    4.3606124812
  - # 7
    frequency:    6.2292100746
  - # 8
    frequency:   24.4777978121
  - # 9
    frequency:   34.0337652267

- q-position: [    0.2833333,    0.0000000,    0.0000000 ]
  distance:    0.0547907
  band:
  - # 1
    frequency:  -15.4013737791
  - # 2
    frequency:  -11.0836917368
  - # 3
    frequency:   -8.2599892502
  - # 4
    frequency:   -5.3582183691
  - # 5
    frequency:    2.6627127297
  - # 6
    frequency:    4.4598827689
  - # 7
    frequency:    6.3485907305
  - # 8
    frequency:   24.3856223757
  - # 9
    frequency:   33.9614910523

- q-position: [    0.2916667,    0.0000000,    0.0000000 ]
  distance:    0.0564021
  band:
  - # 1
    frequency:  -15.2185007508
  - # 2
    frequency:  -11.1266228246
  - # 3
    frequency:   -8.3668204465
  - # 4
    frequency:   -5.4240991995
  - # 5
    frequency:    2.7135627279
  - # 6
    frequency:    4.5547345378
  - # 7
    frequency:    6.4642362442
  - # 8
    frequency:   24.2934371230
  - # 9
    frequency:   33.8899819475

- q-position: [    0.3000000,    0.0000000,    0.0000000 ]
  distance:    0.0580136
  band:
  - # 1
    frequency:  -15.0333570009
  - # 2
    frequency:  -11.1687697668
  - # 3
    frequency:   -8.4705955581
  - # 4
    frequency:   -5.4920093454
  - # 5
    frequency:    2.7619961349
  - # 6
    frequency:    4.6451348755
  - # 7
    frequency:    6.5761330269
  - # 8
    frequency:   24.2015017555
  - # 9
    frequency:   33.8194380531

- q-position: [    0.3083333,    0.0000000,    0.0000000 ]
  distance:    0.0596251
  band:
  - # 1
    frequency:  -14.8462823707
  - # 2
    frequency:  -11.2099478531
  - # 3
    frequency:   -8.5712415905
  - # 4
    frequency:   -5.5620905193
  - # 5
    frequency:    2.8080408550
  - # 6
    frequency:    4.7310783600
  - # 7
    frequency:    6.6842572751
  - # 8
    frequency:   24.1100844384
  - # 9
    frequency:   33.7500569353

- q-position: [    0.3166667,    0.0000000,    0.0000000 ]
  distance:    0.0612366
  band:
  - # 1
    frequency:  -14.6576509769
  - # 2
    frequency:  -11.2499501522
  - # 3
    frequency:   -8.6687125480
  - # 4
    frequency:   -5.6344752421
  - # 5
    frequency:    2.8517290335
  - # 6
    frequency:    4.8125848514
  - # 7
    frequency:    6.7885751136
  - # 8
    frequency:   24.0194613486
  - # 9
    frequency:   33.6820329595

- q-position: [    0.3250000,    0.0000000,    0.0000000 ]
  distance:    0.0628481
  band:
  - # 1
    frequency:  -14.4678790969
  - # 2
    frequency:  -11.2885409801
  - # 3
    frequency:   -8.7629910800
  - # 4
    frequency:   -5.7092778689
  - # 5
    frequency:    2.8930964900
  - # 6
    frequency:    4.8896967794
  - # 7
    frequency:    6.8890429653
  - # 8
    frequency:   23.9299160906
  - # 9
    frequency:   33.6155566765

- q-position: [    0.3333333,    0.0000000,    0.0000000 ]
  distance:    0.0644596
  band:
  - # 1
    frequency:  -14.2774359051
  - # 2
    frequency:  -11.3254468518
  - # 3
    frequency:   -8.8540904402
  - # 4
    frequency:   -5.7865845645
  - # 5
    frequency:    2.9321821271
  - # 6
    frequency:    4.9624759871
  - # 7
    frequency:    6.9856081337
  - # 8
    frequency:   23.8417389685
  - # 9
    frequency:   33.5508142249

- q-position: [    0.3416667,    0.0000000,    0.0000000 ]
  distance:    0.0660711
  band:
  - # 1
    frequency:  -14.0868583322
  - # 2
    frequency:  -11.3603436841
  - # 3
    frequency:   -8.9420568362
  - # 4
    frequency:   -5.8664422725
  - # 5
    frequency:    2.9690272992
  - # 6
    frequency:    5.0310002177
  - # 7
    frequency:    7.0782095702
  - # 8
    frequency:   23.7552260987
  - # 9
    frequency:   33.4879867533

- q-position: [    0.3500000,    0.0000000,    0.0000000 ]
  distance:    0.0676826
  band:
  - # 1
    frequency:  -13.8967719707
  - # 2
    frequency:  -11.3928383621
  - # 3
    frequency:   -9.0269722559
  - # 4
    frequency:   -5.9488467379
  - # 5
    frequency:    3.0036751374
  - # 6
    frequency:    5.0953593509
  - # 7
    frequency:    7.1667787965
  - # 8
    frequency:   23.6706783533
  - # 9
    frequency:   33.4272498658

- q-position: [    0.3583333,    0.0000000,    0.0000000 ]
  distance:    0.0692941
  band:
  - # 1
    frequency:  -13.7079209195
  - # 2
    frequency:  -11.4224418038
  - # 3
    frequency:   -9.1089578718
  - # 4
    frequency:   -6.0337296661
  - # 5
    frequency:    3.0361698330
  - # 6
    frequency:    5.1556515180
  - # 7
    frequency:    7.2512409483
  - # 8
    frequency:   23.5884001230
  - # 9
    frequency:   33.3687730928

- q-position: [    0.3666667,    0.0000000,    0.0000000 ]
  distance:    0.0709056
  band:
  - # 1
    frequency:  -13.5212108631
  - # 2
    frequency:  -11.4485292474
  - # 3
    frequency:   -9.1881781212
  - # 4
    frequency:   -6.1209451186
  - # 5
    frequency:    3.0665558918
  - # 6
    frequency:    5.2119792347
  - # 7
    frequency:    7.3315159054
  - # 8
    frequency:   23.5086978940
  - # 9
    frequency:   33.3127193909

- q-position: [    0.3750000,    0.0000000,    0.0000000 ]
  distance:    0.0725170
  band:
  - # 1
    frequency:  -13.3377714377
  - # 2
    frequency:  -11.4702817135
  - # 3
    frequency:   -9.2648455414
  - # 4
    frequency:   -6.2102552772
  - # 5
    frequency:    3.0948773805
  - # 6
    frequency:    5.2644456957
  - # 7
    frequency:    7.4075194786
  - # 8
    frequency:   23.4318786353
  - # 9
    frequency:   33.2592446728

- q-position: [    0.3833333,    0.0000000,    0.0000000 ]
  distance:    0.0741285
  band:
  - # 1
    frequency:  -13.1590453426
  - # 2
    frequency:  -11.4866011652
  - # 3
    frequency:   -9.3392263912
  - # 4
    frequency:   -6.3013157628
  - # 5
    frequency:    3.1211771899
  - # 6
    frequency:    5.3131513746
  - # 7
    frequency:    7.4791646262
  - # 8
    frequency:   23.3582479966
  - # 9
    frequency:   33.2084973694

- q-position: [    0.3916667,    0.0000000,    0.0000000 ]
  distance:    0.0757400
  band:
  - # 1
    frequency:  -12.9869098040
  - # 2
    frequency:  -11.4959937137
  - # 3
    frequency:   -9.4116469783
  - # 4
    frequency:   -6.3936607959
  - # 5
    frequency:    3.1454963457
  - # 6
    frequency:    5.3581910535
  - # 7
    frequency:    7.5463626780
  - # 8
    frequency:   23.2881083250
  - # 9
    frequency:   33.1606180250

- q-position: [    0.4000000,    0.0000000,    0.0000000 ]
  distance:    0.0773515
  band:
  - # 1
    frequency:  -12.8238221142
  - # 2
    frequency:  -11.4964290577
  - # 3
    frequency:   -9.4825004270
  - # 4
    frequency:   -6.4866886713
  - # 5
    frequency:    3.1678733978
  - # 6
    frequency:    5.3996513940
  - # 7
    frequency:    7.6090245501
  - # 8
    frequency:   23.2217565124
  - # 9
    frequency:   33.1157389269

- q-position: [    0.4083333,    0.0000000,    0.0000000 ]
  distance:    0.0789630
  band:
  - # 1
    frequency:  -12.6729344720
  - # 2
    frequency:  -11.4852307925
  - # 3
    frequency:   -9.5522533005
  - # 4
    frequency:   -6.5796483272
  - # 5
    frequency:    3.1883439145
  - # 6
    frequency:    5.4376091238
  - # 7
    frequency:    7.6670619388
  - # 8
    frequency:   23.1594816917
  - # 9
    frequency:   33.0739837674

- q-position: [    0.4166667,    0.0000000,    0.0000000 ]
  distance:    0.0805745
  band:
  - # 1
    frequency:  -12.5380167276
  - # 2
    frequency:  -11.4591587967
  - # 3
    frequency:   -9.6214510020
  - # 4
    frequency:   -6.6716282702
  - # 5
    frequency:    3.2069401029
  - # 6
    frequency:    5.4721298858
  - # 7
    frequency:    7.7203884825
  - # 8
    frequency:   23.1015628111
  - # 9
    frequency:   33.0354673410

- q-position: [    0.4250000,    0.0000000,    0.0000000 ]
  distance:    0.0821860
  band:
  - # 1
    frequency:  -12.4228950110
  - # 2
    frequency:  -11.4149755185
  - # 3
    frequency:   -9.6907201464
  - # 4
    frequency:   -6.7615497978
  - # 5
    frequency:    3.2236905679
  - # 6
    frequency:    5.5032677532
  - # 7
    frequency:    7.7689208861
  - # 8
    frequency:   23.0482661172
  - # 9
    frequency:   33.0002952729

- q-position: [    0.4333333,    0.0000000,    0.0000000 ]
  distance:    0.0837975
  band:
  - # 1
    frequency:  -12.3302318907
  - # 2
    frequency:  -11.3506704417
  - # 3
    frequency:   -9.7607650499
  - # 4
    frequency:   -6.8481673223
  - # 5
    frequency:    3.2386202129
  - # 6
    frequency:    5.5310653798
  - # 7
    frequency:    7.8125800006
  - # 8
    frequency:   22.9998425898
  - # 9
    frequency:   32.9685637801

- q-position: [    0.4416667,    0.0000000,    0.0000000 ]
  distance:    0.0854090
  band:
  - # 1
    frequency:  -12.2601923325
  - # 2
    frequency:  -11.2667989304
  - # 3
    frequency:   -9.8323539873
  - # 4
    frequency:   -6.9300795102
  - # 5
    frequency:    3.2517502725
  - # 6
    frequency:    5.5555547147
  - # 7
    frequency:    7.8512918501
  - # 8
    frequency:   22.9565253743
  - # 9
    frequency:   32.9403594625

- q-position: [    0.4500000,    0.0000000,    0.0000000 ]
  distance:    0.0870205
  band:
  - # 1
    frequency:  -12.2101899594
  - # 2
    frequency:  -11.1667431320
  - # 3
    frequency:   -9.9062884522
  - # 4
    frequency:   -7.0057556205
  - # 5
    frequency:    3.2630984607
  - # 6
    frequency:    5.5767581826
  - # 7
    frequency:    7.8849885992
  - # 8
    frequency:   22.9185272661
  - # 9
    frequency:   32.9157591220

- q-position: [    0.4583333,    0.0000000,    0.0000000 ]
  distance:    0.0886319
  band:
  - # 1
    frequency:  -12.1760523973
  - # 2
    frequency:  -11.0555634869
  - # 3
    frequency:   -9.9833435705
  - # 4
    frequency:   -7.0735813408
  - # 5
    frequency:    3.2726792089
  - # 6
    frequency:    5.5946902031
  - # 7
    frequency:    7.9136094509
  - # 8
    frequency:   22.8860383011
  - # 9
    frequency:   32.8948296091

- q-position: [    0.4666667,    0.0000000,    0.0000000 ]
  distance:    0.0902434
  band:
  - # 1
    frequency:  -12.1535251675
  - # 2
    frequency:  -10.9385451733
  - # 3
    frequency:  -10.0641528287
  - # 4
    frequency:   -7.1319269485
  - # 5
    frequency:    3.2805039632
  - # 6
    frequency:    5.6093589111
  - # 7
    frequency:    7.9371014625
  - # 8
    frequency:   22.8592235135
  - # 9
    frequency:   32.8776276947

- q-position: [    0.4750000,    0.0000000,    0.0000000 ]
  distance:    0.0918549
  band:
  - # 1
    frequency:  -12.1391415185
  - # 2
    frequency:  -10.8204969587
  - # 3
    frequency:  -10.1489525961
  - # 4
    frequency:   -7.1792372383
  - # 5
    frequency:    3.2865815078
  - # 6
    frequency:    5.6207679282
  - # 7
    frequency:    7.9554202679
  - # 8
    frequency:   22.8382209169
  - # 9
    frequency:   32.8641999642

- q-position: [    0.4833333,    0.0000000,    0.0000000 ]
  distance:    0.0934664
  band:
  - # 1
    frequency:  -12.1304247752
  - # 2
    frequency:  -10.7062108855
  - # 3
    frequency:  -10.2368170334
  - # 4
    frequency:   -7.2141374272
  - # 5
    frequency:    3.2909182820
  - # 6
    frequency:    5.6289180448
  - # 7
    frequency:    7.9685306920
  - # 8
    frequency:   22.8231397655
  - # 9
    frequency:   32.8545827347

- q-position: [    0.4916667,    0.0000000,    0.0000000 ]
  distance:    0.0950779
  band:
  - # 1
    frequency:  -12.1257788155
  - # 2
    frequency:  -10.6040734773
  - # 3
    frequency:  -10.3220487354
  - # 4
    frequency:   -7.2355432233
  - # 5
    frequency:    3.2935186616
  - # 6
    frequency:    5.6338086803
  - # 7
    frequency:    7.9764072457
  - # 8
    frequency:   22.8140591434
  - # 9
    frequency:   32.8488019908

- q-position: [    0.5000000,    0.0000000,    0.0000000 ]
  distance:    0.0966894
  band:
  - # 1
    frequency:  -12.1243235139
  - # 2
    frequency:  -10.5499202806
  - # 3
    frequency:  -10.3703928476
  - # 4
    frequency:   -7.2427585315
  - # 5
    frequency:    3.2943851788
  - # 6
    frequency:    5.6354390107
  - # 7
    frequency:    7.9790344876
  - # 8
    frequency:   22.8110269260
  - # 9
    frequency:   32.8468733409

- q-position: [    0.5000000,    0.0000000,    0.0000000 ]
  distance:    0.0966894
  band:
  - # 1
    frequency:  -12.1243235139
  - # 2
    frequency:  -10.5499202806
  - # 3
    frequency:  -10.3703928476
  - # 4
    frequency:   -7.2427585315
  - # 5
    frequency:    3.2943851788
  - # 6
    frequency:    5.6354390107
  - # 7
    frequency:    7.9790344876
  - # 8
    frequency:   22.8110269260
  - # 9
    frequency:   32.8468733409

- q-position: [    0.4972217,    0.0055550,    0.0000000 ]
  distance:    0.0981108
  band:
  - # 1
    frequency:  -12.1256082827
  - # 2
    frequency:  -10.6230908113
  - # 3
    frequency:  -10.3055451725
  - # 4
    frequency:   -7.2333736385
  - # 5
    frequency:    3.2948284229
  - # 6
    frequency:    5.6347765257
  - # 7
    frequency:    7.9758253556
  - # 8
    frequency:   22.8135167562
  - # 9
    frequency:   32.8473966644

- q-position: [    0.4944433,    0.0111100,    0.0000000 ]
  distance:    0.0995322
  band:
  - # 1
    frequency:  -12.1298370404
  - # 2
    frequency:  -10.7520657535
  - # 3
    frequency:  -10.2008834632
  - # 4
    frequency:   -7.2055166331
  - # 5
    frequency:    3.2961549057
  - # 6
    frequency:    5.6327926814
  - # 7
    frequency:    7.9662040067
  - # 8
    frequency:   22.8209748526
  - # 9
    frequency:   32.8489650626

- q-position: [    0.4916650,    0.0166650,    0.0000000 ]
  distance:    0.1009536
  band:
  - # 1
    frequency:  -12.1382211660
  - # 2
    frequency:  -10.8931909121
  - # 3
    frequency:  -10.0980313002
  - # 4
    frequency:   -7.1600567348
  - # 5
    frequency:    3.2983548081
  - # 6
    frequency:    5.6294980101
  - # 7
    frequency:    7.9501885524
  - # 8
    frequency:   22.8333671541
  - # 9
    frequency:   32.8515738204

- q-position: [    0.4888867,    0.0222200,    0.0000000 ]
  distance:    0.1023750
  band:
  - # 1
    frequency:  -12.1530816006
  - # 2
    frequency:  -11.0372019878
  - # 3
    frequency:  -10.0026421386
  - # 4
    frequency:   -7.0983658453