phonopy:
  version: "2.21.2"
  calculator: qe
  frequency_unit_conversion_factor: 15.633302
  symmetry_tolerance: 1.00000e-05
  configuration:
    cell_filename: "mos2_prim.in"
    create_displacements: ".true."
    dim: "10 20 1"
    calculator: "qe"

physical_unit:
  atomic_mass: "AMU"
  length: "au"
  force_constants: "Ry/au^2"

space_group:
  type: "P-1"
  number: 2
  Hall_symbol: "-P 1"

supercell_matrix:
- [  10,   0,   0 ]
- [   0,  20,   0 ]
- [   0,   0,   1 ]

primitive_cell:
  lattice:
  - [     5.971534593077021,     0.000000000000000,     0.000000000000000 ] # a
  - [     2.985767296538511,     5.170290710967953,     0.000000000000000 ] # b
  - [     0.000000000000000,     0.000000000000000,    37.794522740993806 ] # c
  points:
  - symbol: Mo # 1
    coordinates: [  0.000000000000000,  0.000000000000000,  0.500000000000000 ]
    mass: 95.960000
  - symbol: S  # 2
    coordinates: [  0.333333000000000,  0.666667000000000,  0.430000000000000 ]
    mass: 32.065000
  - symbol: S  # 3
    coordinates: [  0.666667000000000,  0.333333000000000,  0.570000000000000 ]
    mass: 32.065000
  reciprocal_lattice: # without 2pi
  - [     0.167461141589857,    -0.096706361005838,     0.000000000000000 ] # a*
  - [     0.000000000000000,     0.193412722011677,     0.000000000000000 ] # b*
  - [     0.000000000000000,     0.000000000000000,     0.026458860371197 ] # c*

unit_cell:
  lattice:
  - [     5.971534593077021,     0.000000000000000,     0.000000000000000 ] # a
  - [     2.985767296538511,     5.170290710967953,     0.000000000000000 ] # b
  - [     0.000000000000000,     0.000000000000000,    37.794522740993806 ] # c
  points:
  - symbol: Mo # 1
    coordinates: [  0.000000000000000,  0.000000000000000,  0.500000000000000 ]
    mass: 95.960000
    reduced_to: 1
  - symbol: S  # 2
    coordinates: [  0.333333000000000,  0.666667000000000,  0.430000000000000 ]
    mass: 32.065000
    reduced_to: 2
  - symbol: S  # 3
    coordinates: [  0.666667000000000,  0.333333000000000,  0.570000000000000 ]
    mass: 32.065000
    reduced_to: 3

supercell:
  lattice:
  - [    59.715345930770212,     0.000000000000000,     0.000000000000000 ] # a
  - [    59.715345930770212,   103.405814219359058,     0.000000000000000 ] # b
  - [     0.000000000000000,     0.000000000000000,    37.794522740993806 ] # c
  points:
  - symbol: Mo # 1
    coordinates: [  0.000000000000000,  0.000000000000000,  0.500000000000000 ]
    mass: 95.960000
    reduced_to: 1
  - symbol: Mo # 2
    coordinates: [  0.100000000000000,  0.000000000000000,  0.500000000000000 ]
    mass: 95.960000
    reduced_to: 1
  - symbol: Mo # 3
    coordinates: [  0.200000000000000,  0.000000000000000,  0.500000000000000 ]
    mass: 95.960000
    reduced_to: 1
  - symbol: Mo # 4
    coordinates: [  0.300000000000000,  0.000000000000000,  0.500000000000000 ]
    mass: 95.960000
    reduced_to: 1
  - symbol: Mo # 5
    coordinates: [  0.400000000000000,  0.000000000000000,  0.500000000000000 ]
    mass: 95.960000
    reduced_to: 1
  - symbol: Mo # 6
    coordinates: [  0.500000000000000,  0.000000000000000,  0.500000000000000 ]
    mass: 95.960000
    reduced_to: 1
  - symbol: Mo # 7
    coordinates: [  0.600000000000000,  0.000000000000000,  0.500000000000000 ]
    mass: 95.960000
    reduced_to: 1
  - symbol: Mo # 8
    coordinates: [  0.700000000000000,  0.000000000000000,  0.500000000000000 ]
    mass: 95.960000
    reduced_to: 1
  - symbol: Mo # 9
    coordinates: [  0.800000000000000,  0.000000000000000,  0.500000000000000 ]
    mass: 95.960000
    reduced_to: 1
  - symbol: Mo # 10
    coordinates: [  0.900000000000000,  0.000000000000000,  0.500000000000000 ]
    mass: 95.960000
    reduced_to: 1
  - symbol: Mo # 11
    coordinates: [  0.000000000000000,  0.050000000000000,  0.500000000000000 ]
    mass: 95.960000
    reduced_to: 1
  - symbol: Mo # 12
    coordinates: [  0.100000000000000,  0.050000000000000,  0.500000000000000 ]
    mass: 95.960000
    reduced_to: 1
  - symbol: Mo # 13
    coordinates: [  0.200000000000000,  0.050000000000000,  0.500000000000000 ]
    mass: 95.960000
    reduced_to: 1
  - symbol: Mo # 14
    coordinates: [  0.300000000000000,  0.050000000000000,  0.500000000000000 ]
    mass: 95.960000
    reduced_to: 1
  - symbol: Mo # 15
    coordinates: [  0.400000000000000,  0.050000000000000,  0.500000000000000 ]
    mass: 95.960000
    reduced_to: 1
  - symbol: Mo # 16
    coordinates: [  0.500000000000000,  0.050000000000000,  0.500000000000000 ]
    mass: 95.960000
    reduced_to: 1
  - symbol: Mo # 17
    coordinates: [  0.600000000000000,  0.050000000000000,  0.500000000000000 ]
    mass: 95.960000
    reduced_to: 1
  - symbol: Mo # 18
    coordinates: [  0.700000000000000,  0.050000000000000,  0.500000000000000 ]
    mass: 95.960000
    reduced_to: 1
  - symbol: Mo # 19
    coordinates: [  0.800000000000000,  0.050000000000000,  0.500000000000000 ]
    mass: 95.960000
    reduced_to: 1
  - symbol: Mo # 20
    coordinates: [  0.900000000000000,  0.050000000000000,  0.500000000000000 ]
    mass: 95.960000
    reduced_to: 1
  - symbol: Mo # 21
    coordinates: [  0.000000000000000,  0.100000000000000,  0.500000000000000 ]
    mass: 95.960000
    reduced_to: 1
  - symbol: Mo # 22
    coordinates: [  0.100000000000000,  0.100000000000000,  0.500000000000000 ]
    mass: 95.960000
    reduced_to: 1
  - symbol: Mo # 23
    coordinates: [  0.200000000000000,  0.100000000000000,  0.500000000000000 ]
    mass: 95.960000
    reduced_to: 1
  - symbol: Mo # 24
    coordinates: [  0.300000000000000,  0.100000000000000,  0.500000000000000 ]
    mass: 95.960000
    reduced_to: 1
  - symbol: Mo # 25
    coordinates: [  0.400000000000000,  0.100000000000000,  0.500000000000000 ]
    mass: 95.960000
    reduced_to: 1
  - symbol: Mo # 26
    coordinates: [  0.500000000000000,  0.100000000000000,  0.500000000000000 ]
    mass: 95.960000
    reduced_to: 1
  - symbol: Mo # 27
    coordinates: [  0.600000000000000,  0.100000000000000,  0.500000000000000 ]
    mass: 95.960000
    reduced_to: 1
  - symbol: Mo # 28
    coordinates: [  0.700000000000000,  0.100000000000000,  0.500000000000000 ]
    mass: 95.960000
    reduced_to: 1
  - symbol: Mo # 29
    coordinates: [  0.800000000000000,  0.100000000000000,  0.500000000000000 ]
    mass: 95.960000
    reduced_to: 1
  - symbol: Mo # 30
    coordinates: [  0.900000000000000,  0.100000000000000,  0.500000000000000 ]
    mass: 95.960000
    reduced_to: 1
  - symbol: Mo # 31
    coordinates: [  0.000000000000000,  0.150000000000000,  0.500000000000000 ]
    mass: 95.960000
    reduced_to: 1
  - symbol: Mo # 32
    coordinates: [  0.100000000000000,  0.150000000000000,  0.500000000000000 ]
    mass: 95.960000
    reduced_to: 1
  - symbol: Mo # 33
    coordinates: [  0.200000000000000,  0.150000000000000,  0.500000000000000 ]
    mass: 95.960000
    reduced_to: 1
  - symbol: Mo # 34
    coordinates: [  0.300000000000000,  0.150000000000000,  0.500000000000000 ]
    mass: 95.960000
    reduced_to: 1
  - symbol: Mo # 35
    coordinates: [  0.400000000000000,  0.150000000000000,  0.500000000000000 ]
    mass: 95.960000
    reduced_to: 1
  - symbol: Mo # 36
    coordinates: [  0.500000000000000,  0.150000000000000,  0.500000000000000 ]
    mass: 95.960000
    reduced_to: 1
  - symbol: Mo # 37
    coordinates: [  0.600000000000000,  0.150000000000000,  0.500000000000000 ]
    mass: 95.960000
    reduced_to: 1
  - symbol: Mo # 38
    coordinates: [  0.700000000000000,  0.150000000000000,  0.500000000000000 ]
    mass: 95.960000
    reduced_to: 1
  - symbol: Mo # 39
    coordinates: [  0.800000000000000,  0.150000000000000,  0.500000000000000 ]
    mass: 95.960000
    reduced_to: 1
  - symbol: Mo # 40
    coordinates: [  0.900000000000000,  0.150000000000000,  0.500000000000000 ]
    mass: 95.960000
    reduced_to: 1
  - symbol: Mo # 41
    coordinates: [  0.000000000000000,  0.200000000000000,  0.500000000000000 ]
    mass: 95.960000
    reduced_to: 1
  - symbol: Mo # 42
    coordinates: [  0.100000000000000,  0.200000000000000,  0.500000000000000 ]
    mass: 95.960000
    reduced_to: 1
  - symbol: Mo # 43
    coordinates: [  0.200000000000000,  0.200000000000000,  0.500000000000000 ]
    mass: 95.960000
    reduced_to: 1
  - symbol: Mo # 44
    coordinates: [  0.300000000000000,  0.200000000000000,  0.500000000000000 ]
    mass: 95.960000
    reduced_to: 1
  - symbol: Mo # 45
    coordinates: [  0.400000000000000,  0.200000000000000,  0.500000000000000 ]
    mass: 95.960000
    reduced_to: 1
  - symbol: Mo # 46
    coordinates: [  0.500000000000000,  0.200000000000000,  0.500000000000000 ]
    mass: 95.960000
    reduced_to: 1
  - symbol: Mo # 47
    coordinates: [  0.600000000000000,  0.200000000000000,  0.500000000000000 ]
    mass: 95.960000
    reduced_to: 1
  - symbol: Mo # 48
    coordinates: [  0.700000000000000,  0.200000000000000,  0.500000000000000 ]
    mass: 95.960000
    reduced_to: 1
  - symbol: Mo # 49
    coordinates: [  0.800000000000000,  0.200000000000000,  0.500000000000000 ]
    mass: 95.960000
    reduced_to: 1
  - symbol: Mo # 50
    coordinates: [  0.900000000000000,  0.200000000000000,  0.500000000000000 ]
    mass: 95.960000
    reduced_to: 1
  - symbol: Mo # 51
    coordinates: [  0.000000000000000,  0.250000000000000,  0.500000000000000 ]
    mass: 95.960000
    reduced_to: 1
  - symbol: Mo # 52
    coordinates: [  0.100000000000000,  0.250000000000000,  0.500000000000000 ]
    mass: 95.960000
    reduced_to: 1
  - symbol: Mo # 53
    coordinates: [  0.200000000000000,  0.250000000000000,  0.500000000000000 ]
    mass: 95.960000
    reduced_to: 1
  - symbol: Mo # 54
    coordinates: [  0.300000000000000,  0.250000000000000,  0.500000000000000 ]
    mass: 95.960000
    reduced_to: 1
  - symbol: Mo # 55
    coordinates: [  0.400000000000000,  0.250000000000000,  0.500000000000000 ]
    mass: 95.960000
    reduced_to: 1
  - symbol: Mo # 56
    coordinates: [  0.500000000000000,  0.250000000000000,  0.500000000000000 ]
    mass: 95.960000
    reduced_to: 1
  - symbol: Mo # 57
    coordinates: [  0.600000000000000,  0.250000000000000,  0.500000000000000 ]
    mass: 95.960000
    reduced_to: 1
  - symbol: Mo # 58
    coordinates: [  0.700000000000000,  0.250000000000000,  0.500000000000000 ]
    mass: 95.960000
    reduced_to: 1
  - symbol: Mo # 59
    coordinates: [  0.800000000000000,  0.250000000000000,  0.500000000000000 ]
    mass: 95.960000
    reduced_to: 1
  - symbol: Mo # 60
    coordinates: [  0.900000000000000,  0.250000000000000,  0.500000000000000 ]
    mass: 95.960000
    reduced_to: 1
  - symbol: Mo # 61
    coordinates: [  0.000000000000000,  0.300000000000000,  0.500000000000000 ]
    mass: 95.960000
    reduced_to: 1
  - symbol: Mo # 62
    coordinates: [  0.100000000000000,  0.300000000000000,  0.500000000000000 ]
    mass: 95.960000
    reduced_to: 1
  - symbol: Mo # 63
    coordinates: [  0.200000000000000,  0.300000000000000,  0.500000000000000 ]
    mass: 95.960000
    reduced_to: 1
  - symbol: Mo # 64
    coordinates: [  0.300000000000000,  0.300000000000000,  0.500000000000000 ]
    mass: 95.960000
    reduced_to: 1
  - symbol: Mo # 65
    coordinates: [  0.400000000000000,  0.300000000000000,  0.500000000000000 ]
    mass: 95.960000
    reduced_to: 1
  - symbol: Mo # 66
    coordinates: [  0.500000000000000,  0.300000000000000,  0.500000000000000 ]
    mass: 95.960000
    reduced_to: 1
  - symbol: Mo # 67
    coordinates: [  0.600000000000000,  0.300000000000000,  0.500000000000000 ]
    mass: 95.960000
    reduced_to: 1
  - symbol: Mo # 68
    coordinates: [  0.700000000000000,  0.300000000000000,  0.500000000000000 ]
    mass: 95.960000
    reduced_to: 1
  - symbol: Mo # 69
    coordinates: [  0.800000000000000,  0.300000000000000,  0.500000000000000 ]
    mass: 95.960000
    reduced_to: 1
  - symbol: Mo # 70
    coordinates: [  0.900000000000000,  0.300000000000000,  0.500000000000000 ]
    mass: 95.960000
    reduced_to: 1
  - symbol: Mo # 71
    coordinates: [  0.000000000000000,  0.350000000000000,  0.500000000000000 ]
    mass: 95.960000
    reduced_to: 1
  - symbol: Mo # 72
    coordinates: [  0.100000000000000,  0.350000000000000,  0.500000000000000 ]
    mass: 95.960000
    reduced_to: 1
  - symbol: Mo # 73
    coordinates: [  0.200000000000000,  0.350000000000000,  0.500000000000000 ]
    mass: 95.960000
    reduced_to: 1
  - symbol: Mo # 74
    coordinates: [  0.300000000000000,  0.350000000000000,  0.500000000000000 ]
    mass: 95.960000
    reduced_to: 1
  - symbol: Mo # 75
    coordinates: [  0.400000000000000,  0.350000000000000,  0.500000000000000 ]
    mass: 95.960000
    reduced_to: 1
  - symbol: Mo # 76
    coordinates: [  0.500000000000000,  0.350000000000000,  0.500000000000000 ]
    mass: 95.960000
    reduced_to: 1
  - symbol: Mo # 77
    coordinates: [  0.600000000000000,  0.350000000000000,  0.500000000000000 ]
    mass: 95.960000
    reduced_to: 1
  - symbol: Mo # 78
    coordinates: [  0.700000000000000,  0.350000000000000,  0.500000000000000 ]
    mass: 95.960000
    reduced_to: 1
  - symbol: Mo # 79
    coordinates: [  0.800000000000000,  0.350000000000000,  0.500000000000000 ]
    mass: 95.960000
    reduced_to: 1
  - symbol: Mo # 80
    coordinates: [  0.900000000000000,  0.350000000000000,  0.500000000000000 ]
    mass: 95.960000
    reduced_to: 1
  - symbol: Mo # 81
    coordinates: [  0.000000000000000,  0.400000000000000,  0.500000000000000 ]
    mass: 95.960000
    reduced_to: 1
  - symbol: Mo # 82
    coordinates: [  0.100000000000000,  0.400000000000000,  0.500000000000000 ]
    mass: 95.960000
    reduced_to: 1
  - symbol: Mo # 83
    coordinates: [  0.200000000000000,  0.400000000000000,  0.500000000000000 ]
    mass: 95.960000
    reduced_to: 1
  - symbol: Mo # 84
    coordinates: [  0.300000000000000,  0.400000000000000,  0.500000000000000 ]
    mass: 95.960000
    reduced_to: 1
  - symbol: Mo # 85
    coordinates: [  0.400000000000000,  0.400000000000000,  0.500000000000000 ]
    mass: 95.960000
    reduced_to: 1
  - symbol: Mo # 86
    coordinates: [  0.500000000000000,  0.400000000000000,  0.500000000000000 ]
    mass: 95.960000
    reduced_to: 1
  - symbol: Mo # 87
    coordinates: [  0.600000000000000,  0.400000000000000,  0.500000000000000 ]
    mass: 95.960000
    reduced_to: 1
  - symbol: Mo # 88
    coordinates: [  0.700000000000000,  0.400000000000000,  0.500000000000000 ]
    mass: 95.960000
    reduced_to: 1
  - symbol: Mo # 89
    coordinates: [  0.800000000000000,  0.400000000000000,  0.500000000000000 ]
    mass: 95.960000
    reduced_to: 1
  - symbol: Mo # 90
    coordinates: [  0.900000000000000,  0.400000000000000,  0.500000000000000 ]
    mass: 95.960000
    reduced_to: 1
  - symbol: Mo # 91
    coordinates: [  0.000000000000000,  0.450000000000000,  0.500000000000000 ]
    mass: 95.960000
    reduced_to: 1
  - symbol: Mo # 92
    coordinates: [  0.100000000000000,  0.450000000000000,  0.500000000000000 ]
    mass: 95.960000
    reduced_to: 1
  - symbol: Mo # 93
    coordinates: [  0.200000000000000,  0.450000000000000,  0.500000000000000 ]
    mass: 95.960000
    reduced_to: 1
  - symbol: Mo # 94
    coordinates: [  0.300000000000000,  0.450000000000000,  0.500000000000000 ]
    mass: 95.960000
    reduced_to: 1
  - symbol: Mo # 95
    coordinates: [  0.400000000000000,  0.450000000000000,  0.500000000000000 ]
    mass: 95.960000
    reduced_to: 1
  - symbol: Mo # 96
    coordinates: [  0.500000000000000,  0.450000000000000,  0.500000000000000 ]
    mass: 95.960000
    reduced_to: 1
  - symbol: Mo # 97
    coordinates: [  0.600000000000000,  0.450000000000000,  0.500000000000000 ]
    mass: 95.960000
    reduced_to: 1
  - symbol: Mo # 98
    coordinates: [  0.700000000000000,  0.450000000000000,  0.500000000000000 ]
    mass: 95.960000
    reduced_to: 1
  - symbol: Mo # 99
    coordinates: [  0.800000000000000,  0.450000000000000,  0.500000000000000 ]
    mass: 95.960000
    reduced_to: 1
  - symbol: Mo # 100
    coordinates: [  0.900000000000000,  0.450000000000000,  0.500000000000000 ]
    mass: 95.960000
    reduced_to: 1
  - symbol: Mo # 101
    coordinates: [  0.000000000000000,  0.500000000000000,  0.500000000000000 ]
    mass: 95.960000
    reduced_to: 1
  - symbol: Mo # 102
    coordinates: [  0.100000000000000,  0.500000000000000,  0.500000000000000 ]
    mass: 95.960000
    reduced_to: 1
  - symbol: Mo # 103
    coordinates: [  0.200000000000000,  0.500000000000000,  0.500000000000000 ]
    mass: 95.960000
    reduced_to: 1
  - symbol: Mo # 104
    coordinates: [  0.300000000000000,  0.500000000000000,  0.500000000000000 ]
    mass: 95.960000
    reduced_to: 1
  - symbol: Mo # 105
    coordinates: [  0.400000000000000,  0.500000000000000,  0.500000000000000 ]
    mass: 95.960000
    reduced_to: 1
  - symbol: Mo # 106
    coordinates: [  0.500000000000000,  0.500000000000000,  0.500000000000000 ]
    mass: 95.960000
    reduced_to: 1
  - symbol: Mo # 107
    coordinates: [  0.600000000000000,  0.500000000000000,  0.500000000000000 ]
    mass: 95.960000
    reduced_to: 1
  - symbol: Mo # 108
    coordinates: [  0.700000000000000,  0.500000000000000,  0.500000000000000 ]
    mass: 95.960000
    reduced_to: 1
  - symbol: Mo # 109
    coordinates: [  0.800000000000000,  0.500000000000000,  0.500000000000000 ]
    mass: 95.960000
    reduced_to: 1
  - symbol: Mo # 110
    coordinates: [  0.900000000000000,  0.500000000000000,  0.500000000000000 ]
    mass: 95.960000
    reduced_to: 1
  - symbol: Mo # 111
    coordinates: [  0.000000000000000,  0.550000000000000,  0.500000000000000 ]
    mass: 95.960000
    reduced_to: 1
  - symbol: Mo # 112
    coordinates: [  0.100000000000000,  0.550000000000000,  0.500000000000000 ]
    mass: 95.960000
    reduced_to: 1
  - symbol: Mo # 113
    coordinates: [  0.200000000000000,  0.550000000000000,  0.500000000000000 ]
    mass: 95.960000
    reduced_to: 1
  - symbol: Mo # 114
    coordinates: [  0.300000000000000,  0.550000000000000,  0.500000000000000 ]
    mass: 95.960000
    reduced_to: 1
  - symbol: Mo # 115
    coordinates: [  0.400000000000000,  0.550000000000000,  0.500000000000000 ]
    mass: 95.960000
    reduced_to: 1
  - symbol: Mo # 116
    coordinates: [  0.500000000000000,  0.550000000000000,  0.500000000000000 ]
    mass: 95.960000
    reduced_to: 1
  - symbol: Mo # 117
    coordinates: [  0.600000000000000,  0.550000000000000,  0.500000000000000 ]
    mass: 95.960000
    reduced_to: 1
  - symbol: Mo # 118
    coordinates: [  0.700000000000000,  0.550000000000000,  0.500000000000000 ]
    mass: 95.960000
    reduced_to: 1
  - symbol: Mo # 119
    coordinates: [  0.800000000000000,  0.550000000000000,  0.500000000000000 ]
    mass: 95.960000
    reduced_to: 1
  - symbol: Mo # 120
    coordinates: [  0.900000000000000,  0.550000000000000,  0.500000000000000 ]
    mass: 95.960000
    reduced_to: 1
  - symbol: Mo # 121
    coordinates: [  0.000000000000000,  0.600000000000000,  0.500000000000000 ]
    mass: 95.960000
    reduced_to: 1
  - symbol: Mo # 122
    coordinates: [  0.100000000000000,  0.600000000000000,  0.500000000000000 ]
    mass: 95.960000
    reduced_to: 1
  - symbol: Mo # 123
    coordinates: [  0.200000000000000,  0.600000000000000,  0.500000000000000 ]
    mass: 95.960000
    reduced_to: 1
  - symbol: Mo # 124
    coordinates: [  0.300000000000000,  0.600000000000000,  0.500000000000000 ]
    mass: 95.960000
    reduced_to: 1
  - symbol: Mo # 125
    coordinates: [  0.400000000000000,  0.600000000000000,  0.500000000000000 ]
    mass: 95.960000
    reduced_to: 1
  - symbol: Mo # 126
    coordinates: [  0.500000000000000,  0.600000000000000,  0.500000000000000 ]
    mass: 95.960000
    reduced_to: 1
  - symbol: Mo # 127
    coordinates: [  0.600000000000000,  0.600000000000000,  0.500000000000000 ]
    mass: 95.960000
    reduced_to: 1
  - symbol: Mo # 128
    coordinates: [  0.700000000000000,  0.600000000000000,  0.500000000000000 ]
    mass: 95.960000
    reduced_to: 1
  - symbol: Mo # 129
    coordinates: [  0.800000000000000,  0.600000000000000,  0.500000000000000 ]
    mass: 95.960000
    reduced_to: 1
  - symbol: Mo # 130
    coordinates: [  0.900000000000000,  0.600000000000000,  0.500000000000000 ]
    mass: 95.960000
    reduced_to: 1
  - symbol: Mo # 131
    coordinates: [  0.000000000000000,  0.650000000000000,  0.500000000000000 ]
    mass: 95.960000
    reduced_to: 1
  - symbol: Mo # 132
    coordinates: [  0.100000000000000,  0.650000000000000,  0.500000000000000 ]
    mass: 95.960000
    reduced_to: 1
  - symbol: Mo # 133
    coordinates: [  0.200000000000000,  0.650000000000000,  0.500000000000000 ]
    mass: 95.960000
    reduced_to: 1
  - symbol: Mo # 134
    coordinates: [  0.300000000000000,  0.650000000000000,  0.500000000000000 ]
    mass: 95.960000
    reduced_to: 1
  - symbol: Mo # 135
    coordinates: [  0.400000000000000,  0.650000000000000,  0.500000000000000 ]
    mass: 95.960000
    reduced_to: 1
  - symbol: Mo # 136
    coordinates: [  0.500000000000000,  0.650000000000000,  0.500000000000000 ]
    mass: 95.960000
    reduced_to: 1
  - symbol: Mo # 137
    coordinates: [  0.600000000000000,  0.650000000000000,  0.500000000000000 ]
    mass: 95.960000
    reduced_to: 1
  - symbol: Mo # 138
    coordinates: [  0.700000000000000,  0.650000000000000,  0.500000000000000 ]
    mass: 95.960000
    reduced_to: 1
  - symbol: Mo # 139
    coordinates: [  0.800000000000000,  0.650000000000000,  0.500000000000000 ]
    mass: 95.960000
    reduced_to: 1
  - symbol: Mo # 140
    coordinates: [  0.900000000000000,  0.650000000000000,  0.500000000000000 ]
    mass: 95.960000
    reduced_to: 1
  - symbol: Mo # 141
    coordinates: [  0.000000000000000,  0.700000000000000,  0.500000000000000 ]
    mass: 95.960000
    reduced_to: 1
  - symbol: Mo # 142
    coordinates: [  0.100000000000000,  0.700000000000000,  0.500000000000000 ]
    mass: 95.960000
    reduced_to: 1
  - symbol: Mo # 143
    coordinates: [  0.200000000000000,  0.700000000000000,  0.500000000000000 ]
    mass: 95.960000
    reduced_to: 1
  - symbol: Mo # 144
    coordinates: [  0.300000000000000,  0.700000000000000,  0.500000000000000 ]
    mass: 95.960000
    reduced_to: 1
  - symbol: Mo # 145
    coordinates: [  0.400000000000000,  0.700000000000000,  0.500000000000000 ]
    mass: 95.960000
    reduced_to: 1
  - symbol: Mo # 146
    coordinates: [  0.500000000000000,  0.700000000000000,  0.500000000000000 ]
    mass: 95.960000
    reduced_to: 1
  - symbol: Mo # 147
    coordinates: [  0.600000000000000,  0.700000000000000,  0.500000000000000 ]
    mass: 95.960000
    reduced_to: 1
  - symbol: Mo # 148
    coordinates: [  0.700000000000000,  0.700000000000000,  0.500000000000000 ]
    mass: 95.960000
    reduced_to: 1
  - symbol: Mo # 149
    coordinates: [  0.800000000000000,  0.700000000000000,  0.500000000000000 ]
    mass: 95.960000
    reduced_to: 1
  - symbol: Mo # 150
    coordinates: [  0.900000000000000,  0.700000000000000,  0.500000000000000 ]
    mass: 95.960000
    reduced_to: 1
  - symbol: Mo # 151
    coordinates: [  0.000000000000000,  0.750000000000000,  0.500000000000000 ]
    mass: 95.960000
    reduced_to: 1
  - symbol: Mo # 152
    coordinates: [  0.100000000000000,  0.750000000000000,  0.500000000000000 ]
    mass: 95.960000
    reduced_to: 1
  - symbol: Mo # 153
    coordinates: [  0.200000000000000,  0.750000000000000,  0.500000000000000 ]
    mass: 95.960000
    reduced_to: 1
  - symbol: Mo # 154
    coordinates: [  0.300000000000000,  0.750000000000000,  0.500000000000000 ]
    mass: 95.960000
    reduced_to: 1
  - symbol: Mo # 155
    coordinates: [  0.400000000000000,  0.750000000000000,  0.500000000000000 ]
    mass: 95.960000
    reduced_to: 1
  - symbol: Mo # 156
    coordinates: [  0.500000000000000,  0.750000000000000,  0.500000000000000 ]
    mass: 95.960000
    reduced_to: 1
  - symbol: Mo # 157
    coordinates: [  0.600000000000000,  0.750000000000000,  0.500000000000000 ]
    mass: 95.960000
    reduced_to: 1
  - symbol: Mo # 158
    coordinates: [  0.700000000000000,  0.750000000000000,  0.500000000000000 ]
    mass: 95.960000
    reduced_to: 1
  - symbol: Mo # 159
    coordinates: [  0.800000000000000,  0.750000000000000,  0.500000000000000 ]
    mass: 95.960000
    reduced_to: 1
  - symbol: Mo # 160
    coordinates: [  0.900000000000000,  0.750000000000000,  0.500000000000000 ]
    mass: 95.960000
    reduced_to: 1
  - symbol: Mo # 161
    coordinates: [  0.000000000000000,  0.800000000000000,  0.500000000000000 ]
    mass: 95.960000
    reduced_to: 1
  - symbol: Mo # 162
    coordinates: [  0.100000000000000,  0.800000000000000,  0.500000000000000 ]
    mass: 95.960000
    reduced_to: 1
  - symbol: Mo # 163
    coordinates: [  0.200000000000000,  0.800000000000000,  0.500000000000000 ]
    mass: 95.960000
    reduced_to: 1
  - symbol: Mo # 164
    coordinates: [  0.300000000000000,  0.800000000000000,  0.500000000000000 ]
    mass: 95.960000
    reduced_to: 1
  - symbol: Mo # 165
    coordinates: [  0.400000000000000,  0.800000000000000,  0.500000000000000 ]
    mass: 95.960000
    reduced_to: 1
  - symbol: Mo # 166
    coordinates: [  0.500000000000000,  0.800000000000000,  0.500000000000000 ]
    mass: 95.960000
    reduced_to: 1
  - symbol: Mo # 167
    coordinates: [  0.600000000000000,  0.800000000000000,  0.500000000000000 ]
    mass: 95.960000
    reduced_to: 1
  - symbol: Mo # 168
    coordinates: [  0.700000000000000,  0.800000000000000,  0.500000000000000 ]
    mass: 95.960000
    reduced_to: 1
  - symbol: Mo # 169
    coordinates: [  0.800000000000000,  0.800000000000000,  0.500000000000000 ]
    mass: 95.960000
    reduced_to: 1
  - symbol: Mo # 170
    coordinates: [  0.900000000000000,  0.800000000000000,  0.500000000000000 ]
    mass: 95.960000
    reduced_to: 1
  - symbol: Mo # 171
    coordinates: [  0.000000000000000,  0.850000000000000,  0.500000000000000 ]
    mass: 95.960000
    reduced_to: 1
  - symbol: Mo # 172
    coordinates: [  0.100000000000000,  0.850000000000000,  0.500000000000000 ]
    mass: 95.960000
    reduced_to: 1
  - symbol: Mo # 173
    coordinates: [  0.200000000000000,  0.850000000000000,  0.500000000000000 ]
    mass: 95.960000
    reduced_to: 1
  - symbol: Mo # 174
    coordinates: [  0.300000000000000,  0.850000000000000,  0.500000000000000 ]
    mass: 95.960000
    reduced_to: 1
  - symbol: Mo # 175
    coordinates: [  0.400000000000000,  0.850000000000000,  0.500000000000000 ]
    mass: 95.960000
    reduced_to: 1
  - symbol: Mo # 176
    coordinates: [  0.500000000000000,  0.850000000000000,  0.500000000000000 ]
    mass: 95.960000
    reduced_to: 1
  - symbol: Mo # 177
    coordinates: [  0.600000000000000,  0.850000000000000,  0.500000000000000 ]
    mass: 95.960000
    reduced_to: 1
  - symbol: Mo # 178
    coordinates: [  0.700000000000000,  0.850000000000000,  0.500000000000000 ]
    mass: 95.960000
    reduced_to: 1
  - symbol: Mo # 179
    coordinates: [  0.800000000000000,  0.850000000000000,  0.500000000000000 ]
    mass: 95.960000
    reduced_to: 1
  - symbol: Mo # 180
    coordinates: [  0.900000000000000,  0.850000000000000,  0.500000000000000 ]
    mass: 95.960000
    reduced_to: 1
  - symbol: Mo # 181
    coordinates: [  0.000000000000000,  0.900000000000000,  0.500000000000000 ]
    mass: 95.960000
    reduced_to: 1
  - symbol: Mo # 182
    coordinates: [  0.100000000000000,  0.900000000000000,  0.500000000000000 ]
    mass: 95.960000
    reduced_to: 1
  - symbol: Mo # 183
    coordinates: [  0.200000000000000,  0.900000000000000,  0.500000000000000 ]
    mass: 95.960000
    reduced_to: 1
  - symbol: Mo # 184
    coordinates: [  0.300000000000000,  0.900000000000000,  0.500000000000000 ]
    mass: 95.960000
    reduced_to: 1
  - symbol: Mo # 185
    coordinates: [  0.400000000000000,  0.900000000000000,  0.500000000000000 ]
    mass: 95.960000
    reduced_to: 1
  - symbol: Mo # 186
    coordinates: [  0.500000000000000,  0.900000000000000,  0.500000000000000 ]
    mass: 95.960000
    reduced_to: 1
  - symbol: Mo # 187
    coordinates: [  0.600000000000000,  0.900000000000000,  0.500000000000000 ]
    mass: 95.960000
    reduced_to: 1
  - symbol: Mo # 188
    coordinates: [  0.700000000000000,  0.900000000000000,  0.500000000000000 ]
    mass: 95.960000
    reduced_to: 1
  - symbol: Mo # 189
    coordinates: [  0.800000000000000,  0.900000000000000,  0.500000000000000 ]
    mass: 95.960000
    reduced_to: 1
  - symbol: Mo # 190
    coordinates: [  0.900000000000000,  0.900000000000000,  0.500000000000000 ]
    mass: 95.960000
    reduced_to: 1
  - symbol: Mo # 191
    coordinates: [  0.000000000000000,  0.950000000000000,  0.500000000000000 ]
    mass: 95.960000
    reduced_to: 1
  - symbol: Mo # 192
    coordinates: [  0.100000000000000,  0.950000000000000,  0.500000000000000 ]
    mass: 95.960000
    reduced_to: 1
  - symbol: Mo # 193
    coordinates: [  0.200000000000000,  0.950000000000000,  0.500000000000000 ]
    mass: 95.960000
    reduced_to: 1
  - symbol: Mo # 194
    coordinates: [  0.300000000000000,  0.950000000000000,  0.500000000000000 ]
    mass: 95.960000
    reduced_to: 1
  - symbol: Mo # 195
    coordinates: [  0.400000000000000,  0.950000000000000,  0.500000000000000 ]
    mass: 95.960000
    reduced_to: 1
  - symbol: Mo # 196
    coordinates: [  0.500000000000000,  0.950000000000000,  0.500000000000000 ]
    mass: 95.960000
    reduced_to: 1
  - symbol: Mo # 197
    coordinates: [  0.600000000000000,  0.950000000000000,  0.500000000000000 ]
    mass: 95.960000
    reduced_to: 1
  - symbol: Mo # 198
    coordinates: [  0.700000000000000,  0.950000000000000,  0.500000000000000 ]
    mass: 95.960000
    reduced_to: 1
  - symbol: Mo # 199
    coordinates: [  0.800000000000000,  0.950000000000000,  0.500000000000000 ]
    mass: 95.960000
    reduced_to: 1
  - symbol: Mo # 200
    coordinates: [  0.900000000000000,  0.950000000000000,  0.500000000000000 ]