phonopy:
  version: "2.21.2"
  calculator: qe
  frequency_unit_conversion_factor: 108.970772
  symmetry_tolerance: 1.00000e-05
  configuration:
    band: "0 0 0  0.5 0 0  0.3333 0.3333 0  0 0 0"
    band_points: "61"
    atom_name: "Mo S"
    cell_filename: "mos2_prim.in"
    dim: "2 2 1"
    calculator: "qe"

physical_unit:
  atomic_mass: "AMU"
  length: "au"
  force_constants: "Ry/au^2"

space_group:
  type: "P-1"
  number: 2
  Hall_symbol: "-P 1"

supercell_matrix:
- [   2,   0,   0 ]
- [   0,   2,   0 ]
- [   0,   0,   1 ]

primitive_cell:
  lattice:
  - [     5.971534593077021,     0.000000000000000,     0.000000000000000 ] # a
  - [     2.985767296538511,     5.170290710967953,     0.000000000000000 ] # b
  - [     0.000000000000000,     0.000000000000000,    37.794522740993806 ] # c
  points:
  - symbol: Mo # 1
    coordinates: [  0.000000000000000,  0.000000000000000,  0.500000000000000 ]
    mass: 95.960000
  - symbol: S  # 2
    coordinates: [  0.333333000000000,  0.666667000000000,  0.430000000000000 ]
    mass: 32.065000
  - symbol: S  # 3
    coordinates: [  0.666667000000000,  0.333333000000000,  0.570000000000000 ]
    mass: 32.065000
  reciprocal_lattice: # without 2pi
  - [     0.167461141589857,    -0.096706361005838,     0.000000000000000 ] # a*
  - [     0.000000000000000,     0.193412722011677,     0.000000000000000 ] # b*
  - [     0.000000000000000,     0.000000000000000,     0.026458860371197 ] # c*

unit_cell:
  lattice:
  - [     5.971534593077021,     0.000000000000000,     0.000000000000000 ] # a
  - [     2.985767296538511,     5.170290710967953,     0.000000000000000 ] # b
  - [     0.000000000000000,     0.000000000000000,    37.794522740993806 ] # c
  points:
  - symbol: Mo # 1
    coordinates: [  0.000000000000000,  0.000000000000000,  0.500000000000000 ]
    mass: 95.960000
    reduced_to: 1
  - symbol: S  # 2
    coordinates: [  0.333333000000000,  0.666667000000000,  0.430000000000000 ]
    mass: 32.065000
    reduced_to: 2
  - symbol: S  # 3
    coordinates: [  0.666667000000000,  0.333333000000000,  0.570000000000000 ]
    mass: 32.065000
    reduced_to: 3

supercell:
  lattice:
  - [    11.943069186154043,     0.000000000000000,     0.000000000000000 ] # a
  - [     5.971534593077021,    10.340581421935905,     0.000000000000000 ] # b
  - [     0.000000000000000,     0.000000000000000,    37.794522740993806 ] # c
  points:
  - symbol: Mo # 1
    coordinates: [  0.000000000000000,  0.000000000000000,  0.500000000000000 ]
    mass: 95.960000
    reduced_to: 1
  - symbol: Mo # 2
    coordinates: [  0.500000000000000,  0.000000000000000,  0.500000000000000 ]
    mass: 95.960000
    reduced_to: 1
  - symbol: Mo # 3
    coordinates: [  0.000000000000000,  0.500000000000000,  0.500000000000000 ]
    mass: 95.960000
    reduced_to: 1
  - symbol: Mo # 4
    coordinates: [  0.500000000000000,  0.500000000000000,  0.500000000000000 ]
    mass: 95.960000
    reduced_to: 1
  - symbol: S  # 5
    coordinates: [  0.166666500000000,  0.333333500000000,  0.430000000000000 ]
    mass: 32.065000
    reduced_to: 5
  - symbol: S  # 6
    coordinates: [  0.666666500000000,  0.333333500000000,  0.430000000000000 ]
    mass: 32.065000
    reduced_to: 5
  - symbol: S  # 7
    coordinates: [  0.166666500000000,  0.833333500000000,  0.430000000000000 ]
    mass: 32.065000
    reduced_to: 5
  - symbol: S  # 8
    coordinates: [  0.666666500000000,  0.833333500000000,  0.430000000000000 ]
    mass: 32.065000
    reduced_to: 5
  - symbol: S  # 9
    coordinates: [  0.333333500000000,  0.166666500000000,  0.570000000000000 ]
    mass: 32.065000
    reduced_to: 9
  - symbol: S  # 10
    coordinates: [  0.833333500000000,  0.166666500000000,  0.570000000000000 ]
    mass: 32.065000
    reduced_to: 9
  - symbol: S  # 11
    coordinates: [  0.333333500000000,  0.666666500000000,  0.570000000000000 ]
    mass: 32.065000
    reduced_to: 9
  - symbol: S  # 12
    coordinates: [  0.833333500000000,  0.666666500000000,  0.570000000000000 ]
    mass: 32.065000
    reduced_to: 9
